14353457
 OpenBabel06082519392D

 92 97  0  0  1  0  0  0  0  0999 V2000
    6.8726   -3.2890    0.0000 O   0  0  0  0  0  0  0  0  0  0  0  0
    5.1406   -1.2890    0.0000 O   0  0  0  0  0  0  0  0  0  0  0  0
    6.0066   -4.7890    0.0000 O   0  0  0  0  0  0  0  0  0  0  0  0
    6.8726   -1.2890    0.0000 O   0  0  0  0  0  0  0  0  0  0  0  0
    5.1406   -4.2890    0.0000 O   0  0  0  0  0  0  0  0  0  0  0  0
    3.4085   -3.2890    0.0000 O   0  0  0  0  0  0  0  0  0  0  0  0
    8.6047   -4.2890    0.0000 O   0  0  0  0  0  0  0  0  0  0  0  0
    8.6047   -6.2890    0.0000 O   0  0  0  0  0  0  0  0  0  0  0  0
    6.8726   -7.2890    0.0000 O   0  0  0  0  0  0  0  0  0  0  0  0
    4.2625    4.2869    0.0000 O   0  0  0  0  0  0  0  0  0  0  0  0
    2.5425   -1.7890    0.0000 O   0  0  0  0  0  0  0  0  0  0  0  0
    5.9945    4.2803    0.0000 O   0  0  0  0  0  0  0  0  0  0  0  0
    4.2740    7.2869    0.0000 O   0  0  0  0  0  0  0  0  0  0  0  0
    2.5381    6.2936    0.0000 O   0  0  0  0  0  0  0  0  0  0  0  0
    6.0022    6.2802    0.0000 O   0  0  0  0  0  0  0  0  0  0  0  0
    7.7386    1.2110    0.0000 O   0  0  0  0  0  0  0  0  0  0  0  0
    5.1406   -0.2890    0.0000 O   0  0  0  0  0  0  0  0  0  0  0  0
    4.2364    1.2079    0.0000 O   0  0  0  0  0  0  0  0  0  0  0  0
   11.2027   -1.7890    0.0000 O   0  0  0  0  0  0  0  0  0  0  0  0
    6.0066   -2.7890    0.0000 C   0  0  3  0  0  0  0  0  0  0  0  0
    5.1406   -3.2890    0.0000 C   0  0  3  0  0  0  0  0  0  0  0  0
    4.2745   -2.7890    0.0000 C   0  0  3  0  0  0  0  0  0  0  0  0
    6.8726   -4.2890    0.0000 C   0  0  3  0  0  0  0  0  0  0  0  0
    6.0066   -1.7890    0.0000 C   0  0  3  0  0  0  0  0  0  0  0  0
    4.2745   -1.7890    0.0000 C   0  0  3  0  0  0  0  0  0  0  0  0
    7.7386   -4.7890    0.0000 C   0  0  3  0  0  0  0  0  0  0  0  0
    7.7386   -5.7890    0.0000 C   0  0  3  0  0  0  0  0  0  0  0  0
    6.8726   -6.2890    0.0000 C   0  0  3  0  0  0  0  0  0  0  0  0
    6.0066   -5.7890    0.0000 C   0  0  3  0  0  0  0  0  0  0  0  0
    3.4085   -1.2890    0.0000 C   0  0  0  0  0  0  0  0  0  0  0  0
    5.1406   -6.2890    0.0000 C   0  0  0  0  0  0  0  0  0  0  0  0
    4.2702    6.2869    0.0000 C   0  0  3  0  0  0  0  0  0  0  0  0
    3.4022    5.7903    0.0000 C   0  0  3  0  0  0  0  0  0  0  0  0
    5.1343    5.7836    0.0000 C   0  0  3  0  0  0  0  0  0  0  0  0
    3.3984    4.7903    0.0000 C   0  0  3  0  0  0  0  0  0  0  0  0
    5.1304    4.7836    0.0000 C   0  0  3  0  0  0  0  0  0  0  0  0
    6.8726   -0.2890    0.0000 C   0  0  0  0  0  0  0  0  0  0  0  0
    2.5304    4.2936    0.0000 C   0  0  0  0  0  0  0  0  0  0  0  0
    7.7386    0.2110    0.0000 C   0  0  0  0  0  0  0  0  0  0  0  0
    6.0066    0.2110    0.0000 C   0  0  0  0  0  0  0  0  0  0  0  0
    6.0066    1.2110    0.0000 C   0  0  0  0  0  0  0  0  0  0  0  0
    5.9906    3.2803    0.0000 C   0  0  0  0  0  0  0  0  0  0  0  0
    6.8726    1.7110    0.0000 C   0  0  0  0  0  0  0  0  0  0  0  0
    6.8887    2.7525    0.0000 C   0  0  0  0  0  0  0  0  0  0  0  0
    5.0966    1.7179    0.0000 C   0  0  0  0  0  0  0  0  0  0  0  0
    8.6047   -0.2890    0.0000 C   0  0  0  0  0  0  0  0  0  0  0  0
    5.0886    2.7595    0.0000 C   0  0  0  0  0  0  0  0  0  0  0  0
    8.6047   -1.2890    0.0000 C   0  0  0  0  0  0  0  0  0  0  0  0
    9.4707    0.2110    0.0000 C   0  0  0  0  0  0  0  0  0  0  0  0
    9.4707   -1.7890    0.0000 C   0  0  0  0  0  0  0  0  0  0  0  0
   10.3367   -0.2890    0.0000 C   0  0  0  0  0  0  0  0  0  0  0  0
   10.3367   -1.2890    0.0000 C   0  0  0  0  0  0  0  0  0  0  0  0
    6.0066   -3.4090    0.0000 H   0  0  0  0  0  0  0  0  0  0  0  0
    4.6036   -3.5990    0.0000 H   0  0  0  0  0  0  0  0  0  0  0  0
    3.7376   -2.4790    0.0000 H   0  0  0  0  0  0  0  0  0  0  0  0
    7.4096   -3.9790    0.0000 H   0  0  0  0  0  0  0  0  0  0  0  0
    6.0066   -1.1690    0.0000 H   0  0  0  0  0  0  0  0  0  0  0  0
    4.2745   -1.1690    0.0000 H   0  0  0  0  0  0  0  0  0  0  0  0
    8.2756   -5.0990    0.0000 H   0  0  0  0  0  0  0  0  0  0  0  0
    8.2756   -5.4790    0.0000 H   0  0  0  0  0  0  0  0  0  0  0  0
    7.4096   -6.5990    0.0000 H   0  0  0  0  0  0  0  0  0  0  0  0
    5.4697   -5.4790    0.0000 H   0  0  0  0  0  0  0  0  0  0  0  0
    3.8070   -0.8140    0.0000 H   0  0  0  0  0  0  0  0  0  0  0  0
    3.0100   -0.8140    0.0000 H   0  0  0  0  0  0  0  0  0  0  0  0
    4.8306   -5.7520    0.0000 H   0  0  0  0  0  0  0  0  0  0  0  0
    4.6036   -6.5990    0.0000 H   0  0  0  0  0  0  0  0  0  0  0  0
    5.4506   -6.8259    0.0000 H   0  0  0  0  0  0  0  0  0  0  0  0
    4.6036   -4.5990    0.0000 H   0  0  0  0  0  0  0  0  0  0  0  0
    3.7344    6.5990    0.0000 H   0  0  0  0  0  0  0  0  0  0  0  0
    2.8641    5.4823    0.0000 H   0  0  0  0  0  0  0  0  0  0  0  0
    3.4085   -3.9090    0.0000 H   0  0  0  0  0  0  0  0  0  0  0  0
    5.6700    5.4715    0.0000 H   0  0  0  0  0  0  0  0  0  0  0  0
    3.3960    4.1703    0.0000 H   0  0  0  0  0  0  0  0  0  0  0  0
    9.1416   -4.5990    0.0000 H   0  0  0  0  0  0  0  0  0  0  0  0
    5.1280    4.1636    0.0000 H   0  0  0  0  0  0  0  0  0  0  0  0
    8.6047   -6.9090    0.0000 H   0  0  0  0  0  0  0  0  0  0  0  0
    6.3357   -7.5990    0.0000 H   0  0  0  0  0  0  0  0  0  0  0  0
    2.2225    4.8318    0.0000 H   0  0  0  0  0  0  0  0  0  0  0  0
    1.9923    3.9857    0.0000 H   0  0  0  0  0  0  0  0  0  0  0  0
    2.8384    3.7555    0.0000 H   0  0  0  0  0  0  0  0  0  0  0  0
    2.0056   -1.4790    0.0000 H   0  0  0  0  0  0  0  0  0  0  0  0
    3.7383    7.5990    0.0000 H   0  0  0  0  0  0  0  0  0  0  0  0
    2.0000    5.9857    0.0000 H   0  0  0  0  0  0  0  0  0  0  0  0
    6.0046    6.9002    0.0000 H   0  0  0  0  0  0  0  0  0  0  0  0
    7.4292    3.0563    0.0000 H   0  0  0  0  0  0  0  0  0  0  0  0
    4.5504    3.0674    0.0000 H   0  0  0  0  0  0  0  0  0  0  0  0
    8.0677   -1.5990    0.0000 H   0  0  0  0  0  0  0  0  0  0  0  0
    9.4707    0.8310    0.0000 H   0  0  0  0  0  0  0  0  0  0  0  0
    3.6959    1.5116    0.0000 H   0  0  0  0  0  0  0  0  0  0  0  0
    9.4707   -2.4090    0.0000 H   0  0  0  0  0  0  0  0  0  0  0  0
   10.8737    0.0210    0.0000 H   0  0  0  0  0  0  0  0  0  0  0  0
   11.2027   -2.4090    0.0000 H   0  0  0  0  0  0  0  0  0  0  0  0
  1 20  1  0  0  0  0
  1 23  1  0  0  0  0
  2 24  1  0  0  0  0
  2 25  1  0  0  0  0
  3 23  1  0  0  0  0
  3 29  1  0  0  0  0
  4 24  1  0  0  0  0
  4 37  1  0  0  0  0
  5 21  1  0  0  0  0
  5 68  1  0  0  0  0
  6 22  1  0  0  0  0
  6 71  1  0  0  0  0
  7 26  1  0  0  0  0
  7 74  1  0  0  0  0
  8 27  1  0  0  0  0
  8 76  1  0  0  0  0
  9 28  1  0  0  0  0
  9 77  1  0  0  0  0
 10 35  1  0  0  0  0
 10 36  1  0  0  0  0
 11 30  1  0  0  0  0
 11 81  1  0  0  0  0
 12 36  1  0  0  0  0
 12 42  1  0  0  0  0
 13 32  1  0  0  0  0
 13 82  1  0  0  0  0
 14 33  1  0  0  0  0
 14 83  1  0  0  0  0
 15 34  1  0  0  0  0
 15 84  1  0  0  0  0
 16 39  1  0  0  0  0
 16 43  1  0  0  0  0
 17 40  2  0  0  0  0
 18 45  1  0  0  0  0
 18 89  1  0  0  0  0
 19 52  1  0  0  0  0
 19 92  1  0  0  0  0
 20 21  1  0  0  0  0
 20 24  1  0  0  0  0
 20 53  1  0  0  0  0
 21 22  1  0  0  0  0
 21 54  1  0  0  0  0
 22 25  1  0  0  0  0
 22 55  1  0  0  0  0
 23 26  1  0  0  0  0
 23 56  1  0  0  0  0
 24 57  1  0  0  0  0
 25 30  1  0  0  0  0
 25 58  1  0  0  0  0
 26 27  1  0  0  0  0
 26 59  1  0  0  0  0
 27 28  1  0  0  0  0
 27 60  1  0  0  0  0
 28 29  1  0  0  0  0
 28 61  1  0  0  0  0
 29 31  1  0  0  0  0
 29 62  1  0  0  0  0
 30 63  1  0  0  0  0
 30 64  1  0  0  0  0
 31 65  1  0  0  0  0
 31 66  1  0  0  0  0
 31 67  1  0  0  0  0
 32 33  1  0  0  0  0
 32 34  1  0  0  0  0
 32 69  1  0  0  0  0
 33 35  1  0  0  0  0
 33 70  1  0  0  0  0
 34 36  1  0  0  0  0
 34 72  1  0  0  0  0
 35 38  1  0  0  0  0
 35 73  1  0  0  0  0
 36 75  1  0  0  0  0
 37 39  2  0  0  0  0
 37 40  1  0  0  0  0
 38 78  1  0  0  0  0
 38 79  1  0  0  0  0
 38 80  1  0  0  0  0
 39 46  1  0  0  0  0
 40 41  1  0  0  0  0
 41 43  1  0  0  0  0
 41 45  2  0  0  0  0
 42 44  1  0  0  0  0
 42 47  2  0  0  0  0
 43 44  2  0  0  0  0
 44 85  1  0  0  0  0
 45 47  1  0  0  0  0
 46 48  2  0  0  0  0
 46 49  1  0  0  0  0
 47 86  1  0  0  0  0
 48 50  1  0  0  0  0
 48 87  1  0  0  0  0
 49 51  2  0  0  0  0
 49 88  1  0  0  0  0
 50 52  2  0  0  0  0
 50 90  1  0  0  0  0
 51 52  1  0  0  0  0
 51 91  1  0  0  0  0
M  END
>  <PUBCHEM_COMPOUND_CID>
14353457

>  <PUBCHEM_COMPOUND_CANONICALIZED>
1

>  <PUBCHEM_CACTVS_COMPLEXITY>
1260

>  <PUBCHEM_CACTVS_HBOND_ACCEPTOR>
19

>  <PUBCHEM_CACTVS_HBOND_DONOR>
11

>  <PUBCHEM_CACTVS_ROTATABLE_BOND>
8

>  <PUBCHEM_CACTVS_SUBSKEYS>
AAADcfB8PgAAAAAAAAAAAAAAAAAAAAAAAAA0aJECAAAAAACBQAAAGgAACAAADBSwmAMyDoAABgCIAqBSAAICCAAkIAAIiAFGCMgdNzaGNR6ieWCl4BUPuQfI7KzOIAAACAAIAABAAAAQABAAAAAAAAAAAA==

>  <PUBCHEM_IUPAC_OPENEYE_NAME>
3-[4,5-dihydroxy-6-(hydroxymethyl)-3-(3,4,5-trihydroxy-6-methyl-tetrahydropyran-2-yl)oxy-tetrahydropyran-2-yl]oxy-5-hydroxy-2-(4-hydroxyphenyl)-7-(3,4,5-trihydroxy-6-methyl-tetrahydropyran-2-yl)oxy-chromen-4-one

>  <PUBCHEM_IUPAC_CAS_NAME>
3-[[4,5-dihydroxy-6-(hydroxymethyl)-3-[(3,4,5-trihydroxy-6-methyl-2-oxanyl)oxy]-2-oxanyl]oxy]-5-hydroxy-2-(4-hydroxyphenyl)-7-[(3,4,5-trihydroxy-6-methyl-2-oxanyl)oxy]-1-benzopyran-4-one

>  <PUBCHEM_IUPAC_NAME_MARKUP>
3-[4,5-dihydroxy-6-(hydroxymethyl)-3-(3,4,5-trihydroxy-6-methyloxan-2-yl)oxyoxan-2-yl]oxy-5-hydroxy-2-(4-hydroxyphenyl)-7-(3,4,5-trihydroxy-6-methyloxan-2-yl)oxychromen-4-one

>  <PUBCHEM_IUPAC_NAME>
3-[4,5-dihydroxy-6-(hydroxymethyl)-3-(3,4,5-trihydroxy-6-methyloxan-2-yl)oxyoxan-2-yl]oxy-5-hydroxy-2-(4-hydroxyphenyl)-7-(3,4,5-trihydroxy-6-methyloxan-2-yl)oxychromen-4-one

>  <PUBCHEM_IUPAC_SYSTEMATIC_NAME>
3-[6-(hydroxymethyl)-3-[6-methyl-3,4,5-tris(oxidanyl)oxan-2-yl]oxy-4,5-bis(oxidanyl)oxan-2-yl]oxy-2-(4-hydroxyphenyl)-7-[6-methyl-3,4,5-tris(oxidanyl)oxan-2-yl]oxy-5-oxidanyl-chromen-4-one

>  <PUBCHEM_IUPAC_TRADITIONAL_NAME>
3-[4,5-dihydroxy-6-methylol-3-(3,4,5-trihydroxy-6-methyl-tetrahydropyran-2-yl)oxy-tetrahydropyran-2-yl]oxy-5-hydroxy-2-(4-hydroxyphenyl)-7-(3,4,5-trihydroxy-6-methyl-tetrahydropyran-2-yl)oxy-chromone

>  <PUBCHEM_IUPAC_INCHI>
InChI=1S/C33H40O19/c1-10-19(37)23(41)26(44)31(46-10)48-14-7-15(36)18-16(8-14)49-28(12-3-5-13(35)6-4-12)29(22(18)40)51-33-30(25(43)21(39)17(9-34)50-33)52-32-27(45)24(42)20(38)11(2)47-32/h3-8,10-11,17,19-21,23-27,30-39,41-45H,9H2,1-2H3

>  <PUBCHEM_IUPAC_INCHIKEY>
DDELFAUOHDSZJL-UHFFFAOYSA-N

>  <PUBCHEM_XLOGP3_AA>
-1.7

>  <PUBCHEM_EXACT_MASS>
740.21637904

>  <PUBCHEM_MOLECULAR_FORMULA>
C33H40O19

>  <PUBCHEM_MOLECULAR_WEIGHT>
740.7

>  <PUBCHEM_SMILES>
CC1C(C(C(C(O1)OC2C(C(C(OC2OC3=C(OC4=CC(=CC(=C4C3=O)O)OC5C(C(C(C(O5)C)O)O)O)C6=CC=C(C=C6)O)CO)O)O)O)O)O

>  <PUBCHEM_OPENEYE_CAN_SMILES>
CC1C(C(C(C(O1)OC2C(C(C(OC2OC3=C(OC4=CC(=CC(=C4C3=O)O)OC5C(C(C(C(O5)C)O)O)O)C6=CC=C(C=C6)O)CO)O)O)O)O)O

>  <PUBCHEM_OPENEYE_ISO_SMILES>
CC1C(C(C(C(O1)OC2C(C(C(OC2OC3=C(OC4=CC(=CC(=C4C3=O)O)OC5C(C(C(C(O5)C)O)O)O)C6=CC=C(C=C6)O)CO)O)O)O)O)O

>  <PUBCHEM_CACTVS_TPSA>
304

>  <PUBCHEM_MONOISOTOPIC_WEIGHT>
740.21637904

>  <PUBCHEM_TOTAL_CHARGE>
0

>  <PUBCHEM_HEAVY_ATOM_COUNT>
52

>  <PUBCHEM_ATOM_DEF_STEREO_COUNT>
0

>  <PUBCHEM_ATOM_UDEF_STEREO_COUNT>
15

>  <PUBCHEM_BOND_DEF_STEREO_COUNT>
0

>  <PUBCHEM_BOND_UDEF_STEREO_COUNT>
0

>  <PUBCHEM_ISOTOPIC_ATOM_COUNT>
0

>  <PUBCHEM_COMPONENT_COUNT>
1

>  <PUBCHEM_CACTVS_TAUTO_COUNT>
-1

>  <PUBCHEM_COORDINATE_TYPE>
1
5
255

>  <PUBCHEM_BONDANNOTATIONS>
20  1  3
23  1  3
36  12  3
32  13  3
33  14  3
34  15  3
16  39  8
16  43  8
25  30  3
29  31  3
35  38  3
37  39  8
37  40  8
24  4  3
40  41  8
41  43  8
41  45  8
42  44  8
42  47  8
43  44  8
45  47  8
46  48  8
46  49  8
48  50  8
49  51  8
21  5  3
50  52  8
51  52  8
22  6  3
26  7  3
27  8  3
28  9  3

$$$$
